! TOUCHSTONE file generated by CST MICROWAVE STUDIO
! Date and time: Sun Jan 11 17:50:07 2026
! Project name: Untitled_0.cst
! Header version: 2024
! Port assignment regex: !\s*Touchstone port\s*([0-9]+)\s*=\s*(CST MWS port|CST DES external port|CST DES block port)\s*(.+)\s* \(\"(.*)\"\)(\s*mode\s*([0-9]+))?.*
! Touchstone port assignment:
! Touchstone port 1 = CST MWS port 1 ("")
# GHz S MA R 50
4                      0.9364757       -35.97172
4.002                  0.9362686       -36.00881
4.004                  0.9360607       -36.04593
4.006                  0.9358524       -36.08311
4.008                  0.9356432       -36.12034
4.01                   0.9354336       -36.15761
4.012                  0.9352231       -36.19493
4.014                  0.9350121       -36.23231
4.016                  0.9348002       -36.26973
4.018                  0.9345878       -36.30719
4.02                   0.9343749       -36.34471
4.022                   0.934161       -36.38226
4.024                  0.9339467       -36.41988
4.026                  0.9337315       -36.45753
4.028                  0.9335157       -36.49524
4.03                   0.9332993       -36.53299
4.032                  0.9330822       -36.57079
4.034                  0.9328645       -36.60865
4.036                  0.9326459       -36.64655
4.038                  0.9324266        -36.6845
4.04                   0.9322069        -36.7225
4.042                  0.9319861       -36.76054
4.044                  0.9317649       -36.79864
4.046                  0.9315429       -36.83679
4.048                  0.9313202       -36.87498
4.05                   0.9310967       -36.91323
4.052                  0.9308726       -36.95152
4.054                  0.9306478       -36.98986
4.056                  0.9304223       -37.02825
4.058                   0.930196        -37.0667
4.06                   0.9299689       -37.10519
4.062                  0.9297412       -37.14373
4.064                  0.9295127       -37.18233
4.066                  0.9292836       -37.22096
4.068                  0.9290536       -37.25966
4.07                    0.928823        -37.2984
4.072                  0.9285916       -37.33718
4.074                  0.9283594       -37.37603
4.076                  0.9281265       -37.41492
4.078                  0.9278929       -37.45387
4.08                   0.9276585       -37.49286
4.082                  0.9274233       -37.53191
4.084                  0.9271874       -37.57101
4.086                  0.9269508       -37.61015
4.088                  0.9267132       -37.64935
4.09                   0.9264751        -37.6886
4.092                   0.926236       -37.72789
4.094                  0.9259963       -37.76724
4.096                  0.9257558       -37.80664
4.098                  0.9255145       -37.84609
4.1                    0.9252724        -37.8856
4.102                  0.9250296       -37.92513
4.104                  0.9247859       -37.96475
4.106                  0.9245415       -38.00441
4.108                  0.9242962       -38.04414
4.11                   0.9240502       -38.08389
4.112                  0.9238033        -38.1237
4.114                  0.9235557       -38.16359
4.116                  0.9233073       -38.20345
4.118                   0.923058       -38.24345
4.12                   0.9228079       -38.28344
4.122                  0.9225571       -38.32355
4.124                  0.9223053       -38.36366
4.126                  0.9220529       -38.40385
4.128                  0.9217995       -38.44406
4.13                   0.9215453       -38.48433
4.132                  0.9212902       -38.52466
4.134                  0.9210344       -38.56506
4.136                  0.9207778        -38.6055
4.138                  0.9205203       -38.64599
4.14                   0.9202619       -38.68653
4.142                  0.9200028        -38.7271
4.144                  0.9197427       -38.76776
4.146                  0.9194818       -38.80847
4.148                  0.9192201        -38.8492
4.15                   0.9189575       -38.89002
4.152                   0.918694       -38.93089
4.154                  0.9184298       -38.97179
4.156                  0.9181645       -39.01274
4.158                  0.9178984       -39.05377
4.16                   0.9176315       -39.09485
4.162                  0.9173637       -39.13596
4.164                   0.917095       -39.17715
4.166                  0.9168255       -39.21838
4.168                  0.9165551       -39.25966
4.17                   0.9162838         -39.301
4.172                  0.9160116       -39.34239
4.174                  0.9157384       -39.38383
4.176                  0.9154644       -39.42533
4.178                  0.9151896       -39.46688
4.18                   0.9149138       -39.50848
4.182                  0.9146371       -39.55014
4.184                  0.9143594       -39.59185
4.186                   0.914081       -39.63361
4.188                  0.9138015       -39.67543
4.19                   0.9135212       -39.71731
4.192                    0.91324       -39.75923
4.194                  0.9129578       -39.80121
4.196                  0.9126747       -39.84325
4.198                  0.9123908       -39.88534
4.2                    0.9121057       -39.92749
4.202                  0.9118198       -39.96968
4.204                   0.911533       -40.01193
4.206                  0.9112452       -40.05424
4.208                  0.9109565        -40.0966
4.21                   0.9106669       -40.13901
4.212                  0.9103762       -40.18149
4.214                  0.9100847       -40.22401
4.216                  0.9097923       -40.26659
4.218                  0.9094988       -40.30922
4.22                   0.9092043       -40.35191
4.222                   0.908909       -40.39465
4.224                  0.9086126       -40.43745
4.226                  0.9083153        -40.4803
4.228                   0.908017       -40.52321
4.23                   0.9077178       -40.56617
4.232                  0.9074174       -40.60918
4.234                  0.9071163       -40.65225
4.236                   0.906814       -40.69538
4.238                  0.9065108       -40.73856
4.24                   0.9062066       -40.78181
4.242                  0.9059015       -40.82509
4.244                  0.9055953       -40.86844
4.246                  0.9052881       -40.91184
4.248                    0.90498        -40.9553
4.25                   0.9046707       -40.99882
4.252                  0.9043606       -41.04238
4.254                  0.9040494         -41.086
4.256                  0.9037372       -41.12969
4.258                  0.9034239       -41.17342
4.26                   0.9031096       -41.21722
4.262                  0.9027944       -41.26106
4.264                  0.9024781       -41.30496
4.266                  0.9021607       -41.34892
4.268                  0.9018424       -41.39294
4.27                   0.9015229         -41.437
4.272                  0.9012026       -41.48113
4.274                  0.9008811        -41.5253
4.276                  0.9005586       -41.56955
4.278                  0.9002351       -41.61384
4.28                   0.8999104       -41.65819
4.282                  0.8995846        -41.7026
4.284                   0.899258       -41.74705
4.286                  0.8989302       -41.79157
4.288                  0.8986014       -41.83615
4.29                   0.8982714       -41.88078
4.292                  0.8979404       -41.92546
4.294                  0.8976083       -41.97021
4.296                  0.8972752         -42.015
4.298                   0.896941       -42.05987
4.3                    0.8966057       -42.10477
4.302                  0.8962693       -42.14975
4.304                  0.8959318       -42.19477
4.306                  0.8955933       -42.23985
4.308                  0.8952537       -42.28499
4.31                   0.8949129       -42.33018
4.312                  0.8945711       -42.37543
4.314                  0.8942281       -42.42075
4.316                   0.893884       -42.46611
4.318                  0.8935389       -42.51153
4.32                   0.8931925       -42.55702
4.322                  0.8928452       -42.60255
4.324                  0.8924967       -42.64815
4.326                  0.8921469        -42.6938
4.328                  0.8917963        -42.7395
4.33                   0.8914444       -42.78527
4.332                  0.8910913       -42.83109
4.334                  0.8907372       -42.87697
4.336                  0.8903819       -42.92291
4.338                  0.8900255        -42.9689
4.34                   0.8896679       -43.01495
4.342                  0.8893092       -43.06106
4.344                  0.8889492       -43.10723
4.346                  0.8885882       -43.15346
4.348                   0.888226       -43.19974
4.35                   0.8878627       -43.24607
4.352                  0.8874982       -43.29246
4.354                  0.8871325       -43.33892
4.356                  0.8867657       -43.38544
4.358                  0.8863977         -43.432
4.36                   0.8860284       -43.47864
4.362                  0.8856581       -43.52532
4.364                  0.8852865       -43.57207
4.366                  0.8849138       -43.61887
4.368                  0.8845398       -43.66572
4.37                   0.8841648       -43.71264
4.372                  0.8837884       -43.75961
4.374                  0.8834108       -43.80665
4.376                  0.8830322       -43.85374
4.378                  0.8826522        -43.9009
4.38                   0.8822711        -43.9481
4.382                  0.8818887       -43.99537
4.384                  0.8815052       -44.04269
4.386                  0.8811203       -44.09008
4.388                  0.8807343       -44.13752
4.39                   0.8803471       -44.18502
4.392                  0.8799587       -44.23257
4.394                   0.879569       -44.28019
4.396                  0.8791781       -44.32787
4.398                  0.8787859       -44.37561
4.4                    0.8783925       -44.42339
4.402                  0.8779978       -44.47125
4.404                  0.8776019       -44.51916
4.406                  0.8772047       -44.56713
4.408                  0.8768064       -44.61515
4.41                   0.8764066       -44.66324
4.412                  0.8760058       -44.71138
4.414                  0.8756035       -44.75959
4.416                     0.8752       -44.80785
4.418                  0.8747953       -44.85617
4.42                   0.8743892       -44.90455
4.422                  0.8739821       -44.95298
4.424                  0.8735734       -45.00149
4.426                  0.8731636       -45.05005
4.428                  0.8727524       -45.09866
4.43                   0.8723399       -45.14734
4.432                  0.8719262       -45.19608
4.434                  0.8715112       -45.24486
4.436                  0.8710948       -45.29372
4.438                  0.8706771       -45.34263
4.44                   0.8702581        -45.3916
4.442                  0.8698379       -45.44063
4.444                  0.8694162       -45.48972
4.446                  0.8689934       -45.53887
4.448                  0.8685691       -45.58808
4.45                   0.8681435       -45.63735
4.452                  0.8677166       -45.68668
4.454                  0.8672884       -45.73606
4.456                  0.8668588       -45.78551
4.458                  0.8664278       -45.83501
4.46                   0.8659955       -45.88458
4.462                  0.8655619       -45.93421
4.464                   0.865127       -45.98389
4.466                  0.8646906       -46.03364
4.468                  0.8642529       -46.08344
4.47                   0.8638137        -46.1333
4.472                  0.8633734       -46.18322
4.474                  0.8629317       -46.23321
4.476                  0.8624884       -46.28325
4.478                  0.8620439       -46.33335
4.48                   0.8615979       -46.38352
4.482                  0.8611506       -46.43374
4.484                  0.8607019       -46.48402
4.486                  0.8602518       -46.53436
4.488                  0.8598002       -46.58476
4.49                   0.8593474       -46.63523
4.492                   0.858893       -46.68574
4.494                  0.8584374       -46.73632
4.496                  0.8579802       -46.78697
4.498                  0.8575217       -46.83766
4.5                    0.8570618       -46.88842
4.502                  0.8566004       -46.93924
4.504                  0.8561375       -46.99013
4.506                  0.8556733       -47.04106
4.508                  0.8552076       -47.09206
4.51                   0.8547405       -47.14312
4.512                   0.854272       -47.19424
4.514                   0.853802       -47.24543
4.516                  0.8533305       -47.29667
4.518                  0.8528576       -47.34797
4.52                   0.8523833       -47.39932
4.522                  0.8519074       -47.45075
4.524                  0.8514301       -47.50223
4.526                  0.8509514       -47.55377
4.528                  0.8504712       -47.60536
4.53                   0.8499895       -47.65702
4.532                  0.8495063       -47.70874
4.534                  0.8490218       -47.76052
4.536                  0.8485356       -47.81236
4.538                   0.848048       -47.86426
4.54                   0.8475589       -47.91622
4.542                  0.8470682       -47.96824
4.544                  0.8465761       -48.02032
4.546                  0.8460824       -48.07246
4.548                  0.8455873       -48.12466
4.55                   0.8450907       -48.17691
4.552                  0.8445925       -48.22923
4.554                  0.8440928       -48.28162
4.556                  0.8435916       -48.33406
4.558                   0.843089       -48.38656
4.56                   0.8425847       -48.43911
4.562                  0.8420789       -48.49173
4.564                  0.8415714       -48.54441
4.566                  0.8410627       -48.59715
4.568                  0.8405523       -48.64995
4.57                   0.8400402        -48.7028
4.572                  0.8395266       -48.75572
4.574                  0.8390116        -48.8087
4.576                  0.8384949       -48.86173
4.578                  0.8379768       -48.91483
4.58                    0.837457       -48.96799
4.582                  0.8369356        -49.0212
4.584                  0.8364127       -49.07448
4.586                  0.8358881       -49.12782
4.588                  0.8353619       -49.18122
4.59                   0.8348344       -49.23466
4.592                   0.834305       -49.28818
4.594                  0.8337741       -49.34176
4.596                  0.8332417       -49.39539
4.598                  0.8327076       -49.44908
4.6                    0.8321719       -49.50284
4.602                  0.8316346       -49.55664
4.604                  0.8310956       -49.61052
4.606                  0.8305551       -49.66444
4.608                   0.830013       -49.71843
4.61                   0.8294691       -49.77248
4.612                  0.8289237        -49.8266
4.614                  0.8283766       -49.88075
4.616                  0.8278281       -49.93498
4.618                  0.8272776       -49.98926
4.62                   0.8267257       -50.04361
4.622                   0.826172       -50.09801
4.624                  0.8256167       -50.15247
4.626                  0.8250598       -50.20699
4.628                  0.8245011       -50.26157
4.63                   0.8239409       -50.31621
4.632                  0.8233789        -50.3709
4.634                  0.8228153       -50.42566
4.636                    0.82225       -50.48047
4.638                   0.821683       -50.53535
4.64                   0.8211143       -50.59028
4.642                  0.8205441       -50.64526
4.644                   0.819972       -50.70031
4.646                  0.8193983       -50.75539
4.648                  0.8188229       -50.81058
4.65                   0.8182457       -50.86577
4.652                  0.8176668       -50.92107
4.654                  0.8170863       -50.97642
4.656                   0.816504       -51.03179
4.658                  0.8159201       -51.08726
4.66                   0.8153343       -51.14275
4.662                  0.8147469       -51.19832
4.664                  0.8141578       -51.25397
4.666                  0.8135668       -51.30962
4.668                  0.8129741       -51.36538
4.67                   0.8123798       -51.42117
4.672                  0.8117836       -51.47701
4.674                  0.8111857       -51.53291
4.676                  0.8105861       -51.58889
4.678                  0.8099848       -51.64493
4.68                   0.8093815       -51.70102
4.682                  0.8087767       -51.75713
4.684                  0.8081699        -51.8133
4.686                  0.8075615       -51.86959
4.688                  0.8069513       -51.92589
4.69                   0.8063394       -51.98226
4.692                  0.8057255       -52.03865
4.694                  0.8051099       -52.09515
4.696                  0.8044926       -52.15168
4.698                  0.8038735       -52.20828
4.7                    0.8032525       -52.26492
4.702                  0.8026297       -52.32161
4.704                  0.8020052       -52.37836
4.706                  0.8013788       -52.43518
4.708                  0.8007507       -52.49204
4.71                   0.8001206       -52.54895
4.712                  0.7994888       -52.60591
4.714                  0.7988552       -52.66295
4.716                  0.7982197       -52.72005
4.718                  0.7975825       -52.77718
4.72                   0.7969432       -52.83439
4.722                  0.7963023       -52.89163
4.724                  0.7956595       -52.94893
4.726                  0.7950148       -53.00629
4.728                  0.7943684       -53.06369
4.73                   0.7937201       -53.12116
4.732                  0.7930697       -53.17868
4.734                  0.7924178       -53.23625
4.736                  0.7917639       -53.29387
4.738                  0.7911082       -53.35155
4.74                   0.7904504       -53.40928
4.742                   0.789791       -53.46707
4.744                  0.7891296        -53.5249
4.746                  0.7884663       -53.58279
4.748                  0.7878011       -53.64073
4.75                   0.7871342       -53.69873
4.752                  0.7864653       -53.75677
4.754                  0.7857944       -53.81487
4.756                  0.7851217       -53.87302
4.758                  0.7844471       -53.93122
4.76                   0.7837706       -53.98947
4.762                  0.7830922       -54.04777
4.764                  0.7824119       -54.10613
4.766                  0.7817297       -54.16453
4.768                  0.7810454       -54.22299
4.77                   0.7803594        -54.2815
4.772                  0.7796715       -54.34005
4.774                  0.7789816       -54.39867
4.776                  0.7782897       -54.45732
4.778                   0.777596       -54.51602
4.78                   0.7769003       -54.57478
4.782                  0.7762026       -54.63359
4.784                  0.7755031       -54.69244
4.786                  0.7748016       -54.75135
4.788                  0.7740981        -54.8103
4.79                   0.7733926       -54.86931
4.792                  0.7726854       -54.92835
4.794                   0.771976       -54.98746
4.796                  0.7712647       -55.04659
4.798                  0.7705515       -55.10579
4.8                    0.7698363       -55.16503
4.802                  0.7691191       -55.22433
4.804                     0.7684       -55.28366
4.806                  0.7676788       -55.34304
4.808                  0.7669558       -55.40247
4.81                   0.7662307       -55.46195
4.812                  0.7655037       -55.52147
4.814                  0.7647746       -55.58103
4.816                  0.7640437       -55.64064
4.818                  0.7633106       -55.70031
4.82                   0.7625757       -55.76001
4.822                  0.7618386       -55.81975
4.824                  0.7610997       -55.87955
4.826                  0.7603586       -55.93939
4.828                  0.7596156       -55.99927
4.83                   0.7588706        -56.0592
4.832                  0.7581236       -56.11916
4.834                  0.7573746       -56.17919
4.836                  0.7566235       -56.23924
4.838                  0.7558705       -56.29933
4.84                   0.7551154       -56.35948
4.842                  0.7543582       -56.41966
4.844                  0.7535992       -56.47989
4.846                  0.7528381       -56.54015
4.848                  0.7520748       -56.60047
4.85                   0.7513096       -56.66081
4.852                  0.7505424       -56.72121
4.854                  0.7497731       -56.78164
4.856                  0.7490017       -56.84211
4.858                  0.7482284       -56.90263
4.86                   0.7474529       -56.96318
4.862                  0.7466754       -57.02378
4.864                  0.7458959        -57.0844
4.866                  0.7451144       -57.14507
4.868                  0.7443308       -57.20578
4.87                   0.7435452       -57.26653
4.872                  0.7427574       -57.32731
4.874                  0.7419677       -57.38814
4.876                  0.7411758         -57.449
4.878                  0.7403818       -57.50989
4.88                   0.7395859       -57.57082
4.882                  0.7387879       -57.63179
4.884                  0.7379878       -57.69281
4.886                  0.7371855       -57.75385
4.888                  0.7363814       -57.81491
4.89                    0.735575       -57.87603
4.892                  0.7347666       -57.93717
4.894                  0.7339561       -57.99835
4.896                  0.7331436       -58.05957
4.898                  0.7323289       -58.12082
4.9                    0.7315122        -58.1821
4.902                  0.7306934       -58.24341
4.904                  0.7298724       -58.30477
4.906                  0.7290495       -58.36613
4.908                  0.7282243       -58.42755
4.91                   0.7273972       -58.48899
4.912                  0.7265679       -58.55047
4.914                  0.7257365       -58.61196
4.916                   0.724903       -58.67349
4.918                  0.7240674       -58.73507
4.92                   0.7232298       -58.79666
4.922                  0.7223899       -58.85829
4.924                  0.7215481       -58.91993
4.926                   0.720704       -58.98161
4.928                  0.7198579       -59.04332
4.93                   0.7190098       -59.10505
4.932                  0.7181594       -59.16681
4.934                  0.7173071       -59.22859
4.936                  0.7164525       -59.29042
4.938                  0.7155959       -59.35225
4.94                   0.7147371       -59.41411
4.942                  0.7138762       -59.47601
4.944                  0.7130132       -59.53792
4.946                  0.7121481       -59.59986
4.948                  0.7112809       -59.66182
4.95                   0.7104116       -59.72381
4.952                  0.7095401       -59.78581
4.954                  0.7086665       -59.84784
4.956                  0.7077909       -59.90989
4.958                   0.706913       -59.97197
4.96                    0.706033       -60.03406
4.962                  0.7051509       -60.09618
4.964                  0.7042667       -60.15832
4.966                  0.7033803       -60.22047
4.968                  0.7024919       -60.28264
4.97                   0.7016013       -60.34484
4.972                  0.7007086       -60.40704
4.974                  0.6998138       -60.46927
4.976                  0.6989168       -60.53152
4.978                  0.6980176       -60.59378
4.98                   0.6971165       -60.65605
4.982                  0.6962131       -60.71834
4.984                  0.6953076       -60.78066
4.986                  0.6943999       -60.84298
4.988                  0.6934902       -60.90531
4.99                   0.6925783       -60.96767
4.992                  0.6916643       -61.03003
4.994                  0.6907482        -61.0924
4.996                  0.6898299       -61.15479
4.998                  0.6889094       -61.21719
5                      0.6879869       -61.27959
5.002                  0.6870622       -61.34202
5.004                  0.6861354       -61.40445
5.006                  0.6852065       -61.46688
5.008                  0.6842753       -61.52933
5.01                   0.6833422       -61.59179
5.012                  0.6824069       -61.65424
5.014                  0.6814693       -61.71672
5.016                  0.6805297       -61.77919
5.018                   0.679588       -61.84168
5.02                   0.6786442       -61.90416
5.022                  0.6776981       -61.96665
5.024                    0.67675       -62.02914
5.026                  0.6757997       -62.09165
5.028                  0.6748473       -62.15414
5.03                   0.6738928       -62.21664
5.032                  0.6729362       -62.27915
5.034                  0.6719774       -62.34166
5.036                  0.6710166       -62.40415
5.038                  0.6700535       -62.46666
5.04                   0.6690884       -62.52916
5.042                  0.6681211       -62.59167
5.044                  0.6671518       -62.65417
5.046                  0.6661802       -62.71666
5.048                  0.6652066       -62.77916
5.05                   0.6642308       -62.84165
5.052                  0.6632529       -62.90414
5.054                   0.662273       -62.96662
5.056                  0.6612909       -63.02908
5.058                  0.6603066       -63.09154
5.06                   0.6593203       -63.15401
5.062                  0.6583318       -63.21646
5.064                  0.6573412        -63.2789
5.066                  0.6563486       -63.34132
5.068                  0.6553537       -63.40374
5.07                   0.6543568       -63.46615
5.072                  0.6533579       -63.52855
5.074                  0.6523568       -63.59093
5.076                  0.6513536        -63.6533
5.078                  0.6503482       -63.71566
5.08                   0.6493409       -63.77799
5.082                  0.6483313       -63.84032
5.084                  0.6473197       -63.90263
5.086                   0.646306       -63.96492
5.088                  0.6452902        -64.0272
5.09                   0.6442723       -64.08945
5.092                  0.6432523       -64.15168
5.094                  0.6422303       -64.21391
5.096                  0.6412061        -64.2761
5.098                  0.6401799       -64.33827
5.1                    0.6391516       -64.40042
5.102                  0.6381212       -64.46254
5.104                  0.6370887       -64.52464
5.106                  0.6360541       -64.58674
5.108                  0.6350175       -64.64879
5.11                   0.6339789       -64.71081
5.112                  0.6329382        -64.7728
5.114                  0.6318953       -64.83477
5.116                  0.6308504       -64.89672
5.118                  0.6298034       -64.95862
5.12                   0.6287545        -65.0205
5.122                  0.6277034       -65.08234
5.124                  0.6266503       -65.14416
5.126                  0.6255952       -65.20594
5.128                   0.624538       -65.26769
5.13                   0.6234787        -65.3294
5.132                  0.6224176       -65.39107
5.134                  0.6213542        -65.4527
5.136                  0.6202888       -65.51431
5.138                  0.6192214       -65.57586
5.14                    0.618152       -65.63737
5.142                  0.6170806       -65.69886
5.144                  0.6160071       -65.76028
5.146                  0.6149317       -65.82168
5.148                  0.6138542       -65.88303
5.15                   0.6127747       -65.94434
5.152                  0.6116932       -66.00559
5.154                  0.6106097        -66.0668
5.156                  0.6095242       -66.12796
5.158                  0.6084367       -66.18908
5.16                   0.6073472       -66.25014
5.162                  0.6062557       -66.31116
5.164                  0.6051622       -66.37213
5.166                  0.6040668       -66.43302
5.168                  0.6029693       -66.49388
5.17                   0.6018699       -66.55468
5.172                  0.6007686       -66.61542
5.174                  0.5996653        -66.6761
5.176                  0.5985599       -66.73674
5.178                  0.5974526       -66.79731
5.18                   0.5963435       -66.85781
5.182                  0.5952324       -66.91824
5.184                  0.5941192       -66.97862
5.186                  0.5930042       -67.03894
5.188                  0.5918872       -67.09921
5.19                   0.5907683       -67.15937
5.192                  0.5896474       -67.21951
5.194                  0.5885247       -67.27956
5.196                     0.5874       -67.33953
5.198                  0.5862734       -67.39947
5.2                    0.5851449        -67.4593
5.202                  0.5840145       -67.51908
5.204                  0.5828822       -67.57875
5.206                   0.581748       -67.63836